
     Program DYNMAT v.6.1 (svn rev. 13369) starts on  6Jan2023 at 17:35:39 

     This program is part of the open-source Quantum ESPRESSO suite
     for quantum simulation of materials; please cite
         "P. Giannozzi et al., J. Phys.:Condens. Matter 21 395502 (2009);
          URL http://www.quantum-espresso.org", 
     in publications or presentations arising from this work. More details at
     http://www.quantum-espresso.org/quote

     Parallel version (MPI), running on     1 processors

     Reading Dynamical Matrix from file HfTe.dynG
     ...Force constants read
     ...epsilon and Z* read
     ...Raman cross sections read
     Acoustic Sum Rule: || Z*(ASR) - Z*(orig)|| =    3.051009E+00
     Acoustic Sum Rule: ||dyn(ASR) - dyn(orig)||=    1.487037E-04
     A direction for q was not specified:TO-LO splitting will be absent

     Polarizability (A^3 units)
     multiply by 0.183138 for Clausius-Mossotti correction
       352.843649    0.000004    0.000000
         0.000004  221.410727    0.000000
         0.000000    0.000000  623.961204

     IR activities are in (D/A)^2/amu units
     Raman activities are in A^4/amu units
     multiply Raman by 0.033539 for Clausius-Mossotti correction

# mode   [cm-1]    [THz]      IR          Raman   depol.fact
    1     -0.00   -0.0000    0.0000         0.0000    0.3890
IR xyz:     0.0000    0.0000    0.0000
Raman x:         -0.0000        -0.0000        -0.0000
Raman y:         -0.0000         0.0000        -0.0000
Raman z:         -0.0000        -0.0000        -0.0000
    2     -0.00   -0.0000    0.0000         0.0000    0.5993
IR xyz:     0.0000    0.0000    0.0000
Raman x:          0.0000        -0.0000         0.0000
Raman y:         -0.0000        -0.0000        -0.0000
Raman z:          0.0000        -0.0000        -0.0000
    3     -0.00   -0.0000    0.0000         0.0000    0.4285
IR xyz:     0.0000    0.0000    0.0000
Raman x:         -0.0000        -0.0000        -0.0000
Raman y:         -0.0000         0.0000        -0.0000
Raman z:         -0.0000        -0.0000        -0.0000
    4     20.31    0.6090    0.1501         0.0000    0.2485
IR xyz:     0.0000    0.0000    0.1501
Raman x:          0.0000         0.0000        -0.0000
Raman y:          0.0000        -0.0000         0.0000
Raman z:         -0.0000         0.0000         0.0000
    5     35.54    1.0654    0.0000        17.6616    0.7500
IR xyz:     0.0000    0.0000    0.0000
Raman x:         -0.0000        27.6867         0.0000
Raman y:         27.6867         0.0000         0.0000
Raman z:          0.0000         0.0000        -0.0001
    6     39.63    1.1880    0.0000     28789.1817    0.3463
IR xyz:     0.0000    0.0000    0.0000
Raman x:         94.2596         0.0000         0.0000
Raman y:          0.0000      -120.7009        -0.0000
Raman z:          0.0000        -0.0000      1475.0545
    7     46.72    1.4007    0.0000      1747.5739    0.7500
IR xyz:     0.0000    0.0000    0.0000
Raman x:         -0.0000        -0.0000        -0.0001
Raman y:         -0.0000        -0.0000       275.4059
Raman z:         -0.0001       275.4059         0.0000
    8     47.06    1.4107    0.0000         0.0000    0.7433
IR xyz:     0.0000    0.0000    0.0000
Raman x:         -0.0000         0.0000         0.0000
Raman y:          0.0000         0.0000         0.0000
Raman z:          0.0000         0.0000        -0.0000
    9     52.32    1.5685    4.3914         0.0000    0.6169
IR xyz:     4.3914    0.0000    0.0000
Raman x:          0.0000         0.0000         0.0000
Raman y:          0.0000         0.0000        -0.0000
Raman z:          0.0000        -0.0000        -0.0000
   10     72.93    2.1863    0.0070         0.0000    0.7208
IR xyz:     0.0000    0.0000    0.0070
Raman x:          0.0000        -0.0000        -0.0000
Raman y:         -0.0000         0.0000        -0.0000
Raman z:         -0.0000        -0.0000         0.0000
   11     74.51    2.2338    0.0430         0.0000    0.7500
IR xyz:     0.0000    0.0430    0.0000
Raman x:         -0.0000        -0.0000         0.0000
Raman y:         -0.0000        -0.0000        -0.0000
Raman z:          0.0000        -0.0000        -0.0000
   12     74.52    2.2341    0.0000   1030378.9680    0.7500
IR xyz:     0.0000    0.0000    0.0000
Raman x:          0.0000        -0.0000      6687.3476
Raman y:         -0.0000        -0.0000         0.0002
Raman z:       6687.3476         0.0002         0.0000
   13     74.56    2.2353    0.0000         7.2509    0.7500
IR xyz:     0.0000    0.0000    0.0000
Raman x:         -0.0000         0.0000        -0.0000
Raman y:          0.0000        -0.0000       -17.7399
Raman z:         -0.0000       -17.7399        -0.0000
   14     78.93    2.3663    0.0000         0.0000    0.7500
IR xyz:     0.0000    0.0000    0.0000
Raman x:         -0.0000        -0.0000         0.0000
Raman y:         -0.0000         0.0000        -0.0000
Raman z:          0.0000        -0.0000         0.0000
   15     87.47    2.6222    6.7756         0.0000    0.2492
IR xyz:     0.0000    0.0000    6.7756
Raman x:          0.0000        -0.0000        -0.0000
Raman y:         -0.0000        -0.0000        -0.0000
Raman z:         -0.0000        -0.0000         0.0000
   16     95.99    2.8777    0.0000      2114.9571    0.7500
IR xyz:     0.0000    0.0000    0.0000
Raman x:         -0.0000         0.0000         0.0000
Raman y:          0.0000         0.0000       302.9746
Raman z:          0.0000       302.9746        -0.0000
   17     96.87    2.9042    1.5626         0.0000    0.7490
IR xyz:     1.5626    0.0000    0.0000
Raman x:         -0.0000         0.0000        -0.0000
Raman y:          0.0000         0.0000        -0.0000
Raman z:         -0.0000        -0.0000        -0.0000
   18     97.66    2.9279    0.0000        45.3977    0.7500
IR xyz:     0.0000    0.0000    0.0000
Raman x:          0.0000        44.3887        -0.0000
Raman y:         44.3887        -0.0000        -0.0000
Raman z:         -0.0000        -0.0000         0.0001
   19     99.12    2.9715    0.0000   1559670.7400    0.7500
IR xyz:     0.0000    0.0000    0.0000
Raman x:         -0.0000        -0.0000     -8227.5753
Raman y:         -0.0000         0.0000        -0.0002
Raman z:      -8227.5753        -0.0002        -0.0000
   20    113.20    3.3937    0.0431         0.0000    0.2125
IR xyz:     0.0000    0.0431    0.0000
Raman x:          0.0000        -0.0000         0.0000
Raman y:         -0.0000        -0.0000         0.0000
Raman z:          0.0000         0.0000         0.0000
   21    113.40    3.3996    0.0000    414320.8937    0.2181
IR xyz:     0.0000    0.0000    0.0000
Raman x:       1917.4232         0.0001        -0.0000
Raman y:          0.0001      -372.3326         0.0000
Raman z:         -0.0000         0.0000      5086.0528
   22    113.51    3.4030    1.5358         0.0000    0.2170
IR xyz:     0.0000    0.0000    1.5358
Raman x:         -0.0000         0.0000        -0.0000
Raman y:         -0.0000         0.0000         0.0000
Raman z:         -0.0000         0.0000        -0.0000
   23    115.66    3.4673    0.0394         0.0000    0.2497
IR xyz:     0.0000    0.0394    0.0000
Raman x:          0.0000         0.0000         0.0000
Raman y:          0.0000        -0.0000         0.0000
Raman z:          0.0000         0.0000         0.0000
   24    118.43    3.5505    0.0000       240.2024    0.7500
IR xyz:     0.0000    0.0000    0.0000
Raman x:         -0.0000         0.0000        -0.0003
Raman y:          0.0000        -0.0000       102.1043
Raman z:         -0.0003       102.1043        -0.0000
   25    121.64    3.6467    0.0000    261366.4392    0.1875
IR xyz:     0.0000    0.0000    0.0000
Raman x:      -1457.2082        -0.0000         0.0000
Raman y:         -0.0000         5.1105         0.0000
Raman z:          0.0000         0.0000     -4033.1137
   26    135.01    4.0475    0.0000    197194.8042    0.0900
IR xyz:     0.0000    0.0000    0.0000
Raman x:      -2857.9568        -0.0001         0.0000
Raman y:         -0.0001      -368.4254        -0.0000
Raman z:          0.0000        -0.0000     -2160.5726
   27    136.08    4.0797    0.0000       950.8096    0.7500
IR xyz:     0.0000    0.0000    0.0000
Raman x:          0.0001       203.1431         0.0000
Raman y:        203.1431         0.0000         0.0000
Raman z:          0.0000         0.0000         0.0002
   28    147.40    4.4189    4.5080         0.0000    0.6963
IR xyz:     4.5080    0.0000    0.0000
Raman x:          0.0000        -0.0000        -0.0000
Raman y:         -0.0000         0.0000        -0.0000
Raman z:         -0.0000        -0.0000         0.0000
   29    150.83    4.5217    0.0000        66.3931    0.7500
IR xyz:     0.0000    0.0000    0.0000
Raman x:          0.0000       -53.6805        -0.0000
Raman y:        -53.6805         0.0000        -0.0000
Raman z:         -0.0000        -0.0000         0.0000
   30    162.21    4.8630    0.0000       214.8320    0.7500
IR xyz:     0.0000    0.0000    0.0000
Raman x:          0.0000        -0.0000         0.0001
Raman y:         -0.0000        -0.0000       -96.5617
Raman z:          0.0001       -96.5617         0.0000
   31    163.66    4.9064    0.0660         0.0000    0.1919
IR xyz:     0.0000    0.0660    0.0000
Raman x:          0.0000        -0.0000        -0.0000
Raman y:         -0.0000        -0.0000         0.0000
Raman z:         -0.0000         0.0000         0.0000
   32    163.76    4.9095    0.0000    110078.4824    0.1949
IR xyz:     0.0000    0.0000    0.0000
Raman x:      -2624.4021        -0.0001         0.0000
Raman y:         -0.0001        42.7294        -0.0000
Raman z:          0.0000        -0.0000      -943.6757
   33    173.25    5.1939    0.0054         0.0000    0.3528
IR xyz:     0.0000    0.0000    0.0054
Raman x:          0.0000        -0.0000         0.0000
Raman y:          0.0000         0.0000         0.0000
Raman z:          0.0000         0.0000         0.0000
   34    177.25    5.3138    0.0000      3601.4253    0.7500
IR xyz:     0.0000    0.0000    0.0000
Raman x:          0.0000         0.0000        -0.0000
Raman y:          0.0000        -0.0000      -395.3599
Raman z:         -0.0000      -395.3599        -0.0000
   35    206.06    6.1774    0.0000     27587.7235    0.3542
IR xyz:     0.0000    0.0000    0.0000
Raman x:       -547.6770        -0.0000         0.0000
Raman y:         -0.0000       425.8513        -0.0000
Raman z:          0.0000        -0.0000     -1278.0734
   36    207.12    6.2094    0.7461         0.0000    0.3708
IR xyz:     0.0000    0.7461    0.0000
Raman x:          0.0000         0.0000        -0.0000
Raman y:          0.0000        -0.0000         0.0000
Raman z:         -0.0000         0.0000         0.0000
 
# mode    freq           Z~*_x         Z~*_y         Z~*_z         W_eff         deps
#        [cm^-1]                  [e*Bohr/sqrt(2)]                [cm^-1]     [C^2/J*m^2]
    1     -0.000005      0.000000      0.000000      0.000000      0.000000     -0.000000
    2     -0.000003      0.000000     -0.000000     -0.000000      0.000000     -0.000000
    3     -0.000001     -0.000000      0.000000      0.000000      0.000000     -0.000000
    4     20.314794      0.000000     -0.000000     -0.080655     29.213222      2.067922
    5     35.538573      0.000000     -0.000000      0.000000      0.000000      0.000000
    6     39.627683     -0.000000     -0.000000      0.000000      0.000000      0.000000
    7     46.723781     -0.000000      0.000000      0.000000      0.000000      0.000000
    8     47.056402      0.000000      0.000000     -0.000000      0.000002      0.000000
    9     52.318600     -0.436281     -0.000000      0.000000    158.020042      9.122463
   10     72.927205     -0.000000      0.000000     -0.017461      6.324492      0.007521
   11     74.510394      0.000000      0.043166     -0.000000     15.634712      0.044030
   12     74.521933     -0.000000     -0.000000     -0.000000      0.000000      0.000000
   13     74.561915     -0.000000     -0.000000      0.000000      0.000000      0.000000
   14     78.930943     -0.000000      0.000000      0.000000      0.000003      0.000000
   15     87.467552      0.000000     -0.000000     -0.541927    196.284754      5.035924
   16     95.990629     -0.000000     -0.000000      0.000000      0.000000      0.000000
   17     96.874682     -0.260252     -0.000000     -0.000000     94.262698      0.946802
   18     97.664387      0.000000     -0.000000     -0.000000      0.000000      0.000000
   19     99.118076      0.000000      0.000000      0.000000      0.000000      0.000000
   20    113.201815     -0.000000      0.043217      0.000000     15.653173      0.019120
   21    113.399608     -0.000000     -0.000000     -0.000000      0.000000      0.000000
   22    113.512422      0.000000      0.000000     -0.258007     93.449660      0.677749
   23    115.656631     -0.000000      0.041301      0.000000     14.959281      0.016729
   24    118.431954     -0.000000      0.000000      0.000000      0.000000      0.000000
   25    121.641718     -0.000000      0.000000     -0.000000      0.000000      0.000000
   26    135.010120     -0.000000      0.000000      0.000000      0.000000      0.000000
   27    136.084067      0.000000      0.000000      0.000000      0.000000      0.000000
   28    147.399571     -0.442038     -0.000000     -0.000000    160.105203      1.179827
   29    150.826978      0.000000      0.000000     -0.000000      0.000000      0.000000
   30    162.211337     -0.000000      0.000000     -0.000000      0.000000      0.000000
   31    163.659217      0.000000      0.053502     -0.000000     19.378295      0.014020
   32    163.763963      0.000000      0.000000      0.000000      0.000000      0.000000
   33    173.250787     -0.000000      0.000000     -0.015262      5.527697      0.001018
   34    177.248332      0.000000     -0.000000      0.000000      0.000000      0.000000
   35    206.056176     -0.000000     -0.000000      0.000000      0.000000      0.000000
   36    207.124207     -0.000000     -0.179833     -0.000000     65.134901      0.098893
 
Electronic dielectric permittivity tensor (F/m units)
        12.821197    0.000000    0.000000
         0.000000    8.417846    0.000000
         0.000000    0.000000   21.904353
 
 ... with zone-center polar mode contributions
        24.070289    0.000000   -0.000000
         0.000000    8.610638    0.000000
        -0.000000    0.000000   29.694486
 
 
     DYNMAT       :     0.08s CPU         0.20s WALL

 
   This run was terminated on:  17:35:39   6Jan2023            

=------------------------------------------------------------------------------=
   JOB DONE.
=------------------------------------------------------------------------------=
